# vtk DataFile Version 5.1
vtk output
ASCII
DATASET POLYDATA
POINTS 13 float
-0.165931 1.00795 -5.00633 -0.165931 1.00795 -5.00633 -0.260139 1.06145 -5.03104 
-0.260139 1.06145 -5.03104 -0.415149 0.887715 -4.31674 -0.415149 0.887715 -4.31674 
-0.418075 0.294612 -3.83195 -0.418075 0.294612 -3.83195 -0.0966167 0.254858 -5.14272 
-0.0977344 0.252724 -5.14597 -0.0967506 0.252168 -5.14311 0.0597247 -0.34744 -3.79039 
0.10123 -0.403516 -3.51431 
LINES 7 13
OFFSETS vtktypeint64
0 2 4 6 8 11 13 
CONNECTIVITY vtktypeint64
1 0 3 2 5 4 7 6 10 
9 8 12 11 
POINT_DATA 13
FIELD FieldData 3
MaximumInscribedSphereRadius 1 13 double
0.030252057252 0.030252057252 0.073936467204 0.073936467204 0.71474407096 0.71474407096 1.266833629 1.266833629 0.052227044741 
0.054951245715 0.052246934429 1.3878027703 1.6719702835 
EdgeArray 2 13 int
2761 2761 2761 2761 1343 1343 1343 1343 1177 
1177 1177 1177 1260 1260 1260 1260 1556 1556 
493 493 1944 1944 1044 1044 629 629 
EdgePCoordArray 1 13 double
0 0 0 0 0 0 0 0 0 
0 0 0 0 
