# vtk DataFile Version 5.1
vtk output
ASCII
DATASET POLYDATA
POINTS 6 float
-0.133226 -0.333672 5.31269 -0.136232 -0.28695 5.30875 -0.0583257 0.173067 5.23621 
-0.0562973 0.182965 5.23357 -0.0556655 0.186913 5.23309 -0.0556413 0.189579 5.23316 

LINES 3 6
OFFSETS vtktypeint64
0 2 6 
CONNECTIVITY vtktypeint64
1 0 5 4 3 2 
POINT_DATA 6
FIELD FieldData 3
MaximumInscribedSphereRadius 1 6 double
0.089523765123 0.064959357225 0.063027723716 0.066150640027 0.067519057053 0.068585478943 
EdgeArray 2 6 int
15011 15011 14978 14978 638 638 72 540 237 
581 237 237 
EdgePCoordArray 1 6 double
0 0 0 0.768 0.776 0 
